ITEM: TIMESTEP
0
ITEM: NUMBER OF ATOMS
361
ITEM: BOX BOUNDS ff ff pp
0 58.2767
0 40.3753
-0.582767 0.582767
ITEM: ATOMS id v_p x y z 
11 0 6.99321 4.03753 0 
13 0 8.15874 4.03753 0 
1 0 8.74151 3.02815 0 
2 0 9.90705 3.02815 0 
15 0 9.32428 4.03753 0 
3 0 11.0726 3.02815 0 
17 0 10.4898 4.03753 0 
4 0 12.2381 3.02815 0 
19 0 11.6553 4.03753 0 
5 0 13.4036 3.02815 0 
21 0 12.8209 4.03753 0 
23 0 13.9864 4.03753 0 
6 0 14.5692 3.02815 0 
25 0 15.152 4.03753 0 
7 0 15.7347 3.02815 0 
8 0 16.9003 3.02815 0 
27 0 16.3175 4.03753 0 
29 0 17.483 4.03753 0 
31 0 18.6486 4.03753 0 
9 0 5.24491 5.04691 0 
10 0 6.41044 5.04691 0 
12 0 7.57598 5.04691 0 
14 0 8.74151 5.04691 0 
16 0 9.90705 5.04691 0 
18 0 11.0726 5.04691 0 
20 0 12.2381 5.04691 0 
22 0 13.4036 5.04691 0 
24 0 14.5692 5.04691 0 
26 0 15.7347 5.04691 0 
28 0 16.9003 5.04691 0 
30 0 18.0658 5.04691 0 
32 0 19.2313 5.04691 0 
33 0 20.3969 5.04691 0 
34 0 4.07937 7.06568 0 
35 0 4.66214 6.0563 0 
36 0 5.24491 7.06568 0 
37 0 5.82767 6.0563 0 
38 0 6.41044 7.06568 0 
39 0 6.99321 6.0563 0 
40 0 7.57598 7.06568 0 
41 0 8.15874 6.0563 0 
42 0 8.74151 7.06568 0 
43 0 9.32428 6.0563 0 
44 0 9.90705 7.06568 0 
45 0 10.4898 6.0563 0 
46 0 11.0726 7.06568 0 
47 0 11.6553 6.0563 0 
48 0 12.2381 7.06568 0 
49 0 12.8209 6.0563 0 
50 0 13.4036 7.06568 0 
51 0 13.9864 6.0563 0 
52 0 14.5692 7.06568 0 
53 0 15.152 6.0563 0 
54 0 15.7347 7.06568 0 
55 0 16.3175 6.0563 0 
56 0 16.9003 7.06568 0 
57 0 17.483 6.0563 0 
58 0 18.0658 7.06568 0 
59 0 18.6486 6.0563 0 
60 0 19.2313 7.06568 0 
61 0 19.8141 6.0563 0 
62 0 20.3969 7.06568 0 
63 0 20.9796 6.0563 0 
64 0 21.5624 7.06568 0 
66 0 3.4966 8.07506 0 
68 0 4.66214 8.07506 0 
70 0 5.82767 8.07506 0 
72 0 6.99321 8.07506 0 
74 0 8.15874 8.07506 0 
76 0 9.32428 8.07506 0 
78 0 10.4898 8.07506 0 
80 0 11.6553 8.07506 0 
82 0 12.8209 8.07506 0 
84 0 13.9864 8.07506 0 
86 0 15.152 8.07506 0 
88 0 16.3175 8.07506 0 
90 0 17.483 8.07506 0 
92 0 18.6486 8.07506 0 
94 0 19.8141 8.07506 0 
96 0 20.9796 8.07506 0 
98 0 22.1452 8.07506 0 
65 0 2.91384 9.08444 0 
67 0 4.07937 9.08444 0 
69 0 5.24491 9.08444 0 
71 0 6.41044 9.08444 0 
73 0 7.57598 9.08444 0 
75 0 8.74151 9.08444 0 
77 0 9.90705 9.08444 0 
79 0 11.0726 9.08444 0 
81 0 12.2381 9.08444 0 
83 0 13.4036 9.08444 0 
85 0 14.5692 9.08444 0 
87 0 15.7347 9.08444 0 
89 0 16.9003 9.08444 0 
91 0 18.0658 9.08444 0 
93 0 19.2313 9.08444 0 
95 0 20.3969 9.08444 0 
97 0 21.5624 9.08444 0 
99 0 22.7279 9.08444 0 
100 0 1.7483 11.1032 0 
101 0 2.33107 10.0938 0 
102 0 2.91384 11.1032 0 
103 0 3.4966 10.0938 0 
104 0 4.07937 11.1032 0 
105 0 4.66214 10.0938 0 
106 0 5.24491 11.1032 0 
107 0 5.82767 10.0938 0 
108 0 6.41044 11.1032 0 
109 0 6.99321 10.0938 0 
110 0 7.57598 11.1032 0 
111 0 8.15874 10.0938 0 
112 0 8.74151 11.1032 0 
113 0 9.32428 10.0938 0 
114 0 9.90705 11.1032 0 
115 0 10.4898 10.0938 0 
116 0 11.0726 11.1032 0 
117 0 11.6553 10.0938 0 
118 0 12.2381 11.1032 0 
119 0 12.8209 10.0938 0 
120 0 13.4036 11.1032 0 
121 0 13.9864 10.0938 0 
122 0 14.5692 11.1032 0 
123 0 15.152 10.0938 0 
124 0 15.7347 11.1032 0 
125 0 16.3175 10.0938 0 
126 0 16.9003 11.1032 0 
127 0 17.483 10.0938 0 
128 0 18.0658 11.1032 0 
129 0 18.6486 10.0938 0 
130 0 19.2313 11.1032 0 
131 0 19.8141 10.0938 0 
132 0 20.3969 11.1032 0 
133 0 20.9796 10.0938 0 
134 0 21.5624 11.1032 0 
135 0 22.1452 10.0938 0 
136 0 22.7279 11.1032 0 
137 0 23.3107 10.0938 0 
138 0 23.8935 11.1032 0 
140 0 2.33107 12.1126 0 
142 0 3.4966 12.1126 0 
144 0 4.66214 12.1126 0 
146 0 5.82767 12.1126 0 
148 0 6.99321 12.1126 0 
150 0 8.15874 12.1126 0 
152 0 9.32428 12.1126 0 
154 0 10.4898 12.1126 0 
156 0 11.6553 12.1126 0 
158 0 12.8209 12.1126 0 
160 0 13.9864 12.1126 0 
162 0 15.152 12.1126 0 
164 0 16.3175 12.1126 0 
166 0 17.483 12.1126 0 
168 0 18.6486 12.1126 0 
170 0 19.8141 12.1126 0 
172 0 20.9796 12.1126 0 
174 0 22.1452 12.1126 0 
176 0 23.3107 12.1126 0 
139 0 1.7483 13.122 0 
179 0 2.33107 14.1314 0 
141 0 2.91384 13.122 0 
143 0 4.07937 13.122 0 
181 0 3.4966 14.1314 0 
145 0 5.24491 13.122 0 
183 0 4.66214 14.1314 0 
147 0 6.41044 13.122 0 
185 0 5.82767 14.1314 0 
187 0 6.99321 14.1314 0 
149 0 7.57598 13.122 0 
189 0 8.15874 14.1314 0 
151 0 8.74151 13.122 0 
153 0 9.90705 13.122 0 
191 0 9.32428 14.1314 0 
155 0 11.0726 13.122 0 
193 0 10.4898 14.1314 0 
157 0 12.2381 13.122 0 
195 0 11.6553 14.1314 0 
159 0 13.4036 13.122 0 
197 0 12.8209 14.1314 0 
199 0 13.9864 14.1314 0 
161 0 14.5692 13.122 0 
201 0 15.152 14.1314 0 
163 0 15.7347 13.122 0 
165 0 16.9003 13.122 0 
203 0 16.3175 14.1314 0 
167 0 18.0658 13.122 0 
205 0 17.483 14.1314 0 
169 0 19.2313 13.122 0 
207 0 18.6486 14.1314 0 
209 0 19.8141 14.1314 0 
171 0 20.3969 13.122 0 
211 0 20.9796 14.1314 0 
173 0 21.5624 13.122 0 
175 0 22.7279 13.122 0 
213 0 22.1452 14.1314 0 
177 0 23.8935 13.122 0 
215 0 23.3107 14.1314 0 
178 0 1.7483 15.1407 0 
180 0 2.91384 15.1407 0 
182 0 4.07937 15.1407 0 
184 0 5.24491 15.1407 0 
186 0 6.41044 15.1407 0 
188 0 7.57598 15.1407 0 
190 0 8.74151 15.1407 0 
192 0 9.90705 15.1407 0 
194 0 11.0726 15.1407 0 
196 0 12.2381 15.1407 0 
198 0 13.4036 15.1407 0 
200 0 14.5692 15.1407 0 
202 0 15.7347 15.1407 0 
204 0 16.9003 15.1407 0 
206 0 18.0658 15.1407 0 
208 0 19.2313 15.1407 0 
210 0 20.3969 15.1407 0 
212 0 21.5624 15.1407 0 
214 0 22.7279 15.1407 0 
216 0 23.8935 15.1407 0 
217 0 1.7483 17.1595 0 
218 0 2.33107 16.1501 0 
219 0 2.91384 17.1595 0 
220 0 3.4966 16.1501 0 
221 0 4.07937 17.1595 0 
222 0 4.66214 16.1501 0 
223 0 5.24491 17.1595 0 
224 0 5.82767 16.1501 0 
225 0 6.41044 17.1595 0 
226 0 6.99321 16.1501 0 
227 0 7.57598 17.1595 0 
228 0 8.15874 16.1501 0 
229 0 8.74151 17.1595 0 
230 0 9.32428 16.1501 0 
231 0 9.90705 17.1595 0 
232 0 10.4898 16.1501 0 
233 0 11.0726 17.1595 0 
234 0 11.6553 16.1501 0 
235 0 12.2381 17.1595 0 
236 0 12.8209 16.1501 0 
237 0 13.4036 17.1595 0 
238 0 13.9864 16.1501 0 
239 0 14.5692 17.1595 0 
240 0 15.152 16.1501 0 
241 0 15.7347 17.1595 0 
242 0 16.3175 16.1501 0 
243 0 16.9003 17.1595 0 
244 0 17.483 16.1501 0 
245 0 18.0658 17.1595 0 
246 0 18.6486 16.1501 0 
247 0 19.2313 17.1595 0 
248 0 19.8141 16.1501 0 
249 0 20.3969 17.1595 0 
250 0 20.9796 16.1501 0 
251 0 21.5624 17.1595 0 
252 0 22.1452 16.1501 0 
253 0 22.7279 17.1595 0 
254 0 23.3107 16.1501 0 
255 0 23.8935 17.1595 0 
256 0 2.33107 18.1689 0 
258 0 3.4966 18.1689 0 
260 0 4.66214 18.1689 0 
262 0 5.82767 18.1689 0 
264 0 6.99321 18.1689 0 
266 0 8.15874 18.1689 0 
268 0 9.32428 18.1689 0 
270 0 10.4898 18.1689 0 
272 0 11.6553 18.1689 0 
274 0 12.8209 18.1689 0 
276 0 13.9864 18.1689 0 
278 0 15.152 18.1689 0 
280 0 16.3175 18.1689 0 
282 0 17.483 18.1689 0 
284 0 18.6486 18.1689 0 
286 0 19.8141 18.1689 0 
288 0 20.9796 18.1689 0 
290 0 22.1452 18.1689 0 
292 0 23.3107 18.1689 0 
257 0 2.91384 19.1783 0 
259 0 4.07937 19.1783 0 
261 0 5.24491 19.1783 0 
263 0 6.41044 19.1783 0 
265 0 7.57598 19.1783 0 
267 0 8.74151 19.1783 0 
269 0 9.90705 19.1783 0 
271 0 11.0726 19.1783 0 
273 0 12.2381 19.1783 0 
275 0 13.4036 19.1783 0 
277 0 14.5692 19.1783 0 
279 0 15.7347 19.1783 0 
281 0 16.9003 19.1783 0 
283 0 18.0658 19.1783 0 
285 0 19.2313 19.1783 0 
287 0 20.3969 19.1783 0 
289 0 21.5624 19.1783 0 
291 0 22.7279 19.1783 0 
293 0 3.4966 20.1877 0 
294 0 4.07937 21.197 0 
295 0 4.66214 20.1877 0 
296 0 5.24491 21.197 0 
297 0 5.82767 20.1877 0 
298 0 6.41044 21.197 0 
299 0 6.99321 20.1877 0 
300 0 7.57598 21.197 0 
301 0 8.15874 20.1877 0 
302 0 8.74151 21.197 0 
303 0 9.32428 20.1877 0 
304 0 9.90705 21.197 0 
305 0 10.4898 20.1877 0 
306 0 11.0726 21.197 0 
307 0 11.6553 20.1877 0 
308 0 12.2381 21.197 0 
309 0 12.8209 20.1877 0 
310 0 13.4036 21.197 0 
311 0 13.9864 20.1877 0 
312 0 14.5692 21.197 0 
313 0 15.152 20.1877 0 
314 0 15.7347 21.197 0 
315 0 16.3175 20.1877 0 
316 0 16.9003 21.197 0 
317 0 17.483 20.1877 0 
318 0 18.0658 21.197 0 
319 0 18.6486 20.1877 0 
320 0 19.2313 21.197 0 
321 0 19.8141 20.1877 0 
322 0 20.3969 21.197 0 
323 0 20.9796 20.1877 0 
324 0 21.5624 21.197 0 
325 0 22.1452 20.1877 0 
326 0 5.82767 22.2064 0 
328 0 6.99321 22.2064 0 
330 0 8.15874 22.2064 0 
332 0 9.32428 22.2064 0 
334 0 10.4898 22.2064 0 
336 0 11.6553 22.2064 0 
338 0 12.8209 22.2064 0 
340 0 13.9864 22.2064 0 
342 0 15.152 22.2064 0 
344 0 16.3175 22.2064 0 
346 0 17.483 22.2064 0 
348 0 18.6486 22.2064 0 
350 0 19.8141 22.2064 0 
327 0 6.41044 23.2158 0 
329 0 7.57598 23.2158 0 
351 0 8.15874 24.2252 0 
331 0 8.74151 23.2158 0 
333 0 9.90705 23.2158 0 
352 0 9.32428 24.2252 0 
335 0 11.0726 23.2158 0 
353 0 10.4898 24.2252 0 
337 0 12.2381 23.2158 0 
354 0 11.6553 24.2252 0 
339 0 13.4036 23.2158 0 
356 0 12.8209 24.2252 0 
358 0 13.9864 24.2252 0 
341 0 14.5692 23.2158 0 
359 0 15.152 24.2252 0 
343 0 15.7347 23.2158 0 
345 0 16.9003 23.2158 0 
360 0 16.3175 24.2252 0 
347 0 18.0658 23.2158 0 
361 0 17.483 24.2252 0 
349 0 19.2313 23.2158 0 
355 0 12.2381 25.2346 0 
357 0 13.4036 25.2346 0 
ITEM: TIMESTEP
50
ITEM: NUMBER OF ATOMS
361
ITEM: BOX BOUNDS ff ff pp
0 58.2767
0 40.3753
-0.582767 0.582767
ITEM: ATOMS id v_p x y z 
11 0 8.60116 5.321 0 
13 0 9.74416 5.32887 0 
1 0 10.2519 4.34988 0 
2 0 11.3719 4.37376 0 
15 0 10.8369 5.34886 0 
3 0 12.5748 4.35552 0 
17 0 11.9873 5.32136 0 
4 0 13.7156 4.35754 0 
19 0 13.1466 5.32301 0 
5 0 14.8802 4.30201 0 
21 0 14.259 5.2972 0 
23 0 15.3983 5.2822 0 
6 0 16.0228 4.36129 0 
25 0 16.559 5.32213 0 
7 0 17.1425 4.34739 0 
8 0 18.2882 4.31754 0 
27 0 17.7091 5.28796 0 
29 0 18.8161 5.31735 0 
31 0 19.9561 5.31188 0 
9 0 6.91049 6.29017 0 
10 0 8.00208 6.28696 0 
12 0 9.16111 6.2628 0 
14 0 10.2657 6.28762 0 
16 0 11.4482 6.2951 0 
18 0 12.5863 6.27862 0 
20 0 13.7109 6.29276 0 
22 0 14.8374 6.22535 0 
24 0 16.0068 6.24 0 
26 0 17.1647 6.25136 0 
28 0 18.2626 6.2769 0 
30 0 19.3758 6.27579 0 
32 0 20.4807 6.28013 0 
33 0 21.6156 6.33406 0 
34 0 5.76855 8.31361 0 
35 0 6.30771 7.32303 0 
36 0 6.89561 8.25668 0 
37 0 7.46454 7.25092 0 
38 0 8.0226 8.22732 0 
39 0 8.5527 7.26069 0 
40 0 9.14528 8.20901 0 
41 0 9.68428 7.25417 0 
42 0 10.2669 8.2247 0 
43 0 10.8399 7.25899 0 
44 0 11.4157 8.24182 0 
45 0 12.0259 7.26045 0 
46 0 12.5725 8.20833 0 
47 0 13.1758 7.25642 0 
48 0 13.7743 8.16639 0 
49 0 14.3366 7.21004 0 
50 0 14.8826 8.14057 0 
51 0 15.4489 7.18998 0 
52 0 16.0131 8.19769 0 
53 0 16.6078 7.20572 0 
54 0 17.1412 8.1643 0 
55 0 17.6827 7.1993 0 
56 0 18.2411 8.21244 0 
57 0 18.836 7.23456 0 
58 0 19.3983 8.21517 0 
59 0 19.9613 7.26185 0 
60 0 20.5422 8.25309 0 
61 0 21.0861 7.31889 0 
62 0 21.6484 8.27424 0 
63 0 22.2017 7.29142 0 
64 0 22.7545 8.25281 0 
66 0 5.24021 9.26778 0 
68 0 6.38763 9.26495 0 
70 0 7.47999 9.22302 0 
72 0 8.57195 9.23377 0 
74 0 9.71431 9.19804 0 
76 0 10.7982 9.17885 0 
78 0 11.9971 9.1986 0 
80 0 13.1921 9.10671 0 
82 0 14.3163 9.08814 0 
84 0 15.4641 9.10122 0 
86 0 16.6062 9.10922 0 
88 0 17.69 9.13134 0 
90 0 18.8447 9.1613 0 
92 0 19.9601 9.17903 0 
94 0 21.0799 9.22803 0 
96 0 22.1889 9.2202 0 
98 0 23.3483 9.22246 0 
65 0 4.66644 10.2262 0 
67 0 5.80555 10.2158 0 
69 0 6.90091 10.1981 0 
71 0 8.01858 10.1841 0 
73 0 9.15335 10.1734 0 
75 0 10.2641 10.128 0 
77 0 11.3983 10.1129 0 
79 0 12.5886 10.1229 0 
81 0 13.7349 10.1129 0 
83 0 14.8672 10.0328 0 
85 0 16.0518 10.0763 0 
87 0 17.1832 10.0918 0 
89 0 18.3452 10.1165 0 
91 0 19.4425 10.1736 0 
93 0 20.5367 10.1936 0 
95 0 21.6341 10.197 0 
97 0 22.7127 10.198 0 
99 0 23.8687 10.2186 0 
100 0 3.55002 12.2023 0 
101 0 4.06948 11.23 0 
102 0 4.64267 12.2372 0 
103 0 5.2191 11.2142 0 
104 0 5.75399 12.2099 0 
105 0 6.33264 11.2389 0 
106 0 6.85189 12.1781 0 
107 0 7.44967 11.1502 0 
108 0 7.94376 12.1579 0 
109 0 8.58471 11.1503 0 
110 0 9.0788 12.1133 0 
111 0 9.67999 11.1282 0 
112 0 10.1837 12.1466 0 
113 0 10.8029 11.1171 0 
114 0 11.3817 12.1385 0 
115 0 12.0209 11.1353 0 
116 0 12.5429 12.1748 0 
117 0 13.1544 11.1278 0 
118 0 13.7165 12.1283 0 
119 0 14.3108 11.1215 0 
120 0 14.8633 12.1051 0 
121 0 15.4549 11.0664 0 
122 0 16.0077 12.0703 0 
123 0 16.6553 11.071 0 
124 0 17.1788 12.0875 0 
125 0 17.8042 11.081 0 
126 0 18.3324 12.0801 0 
127 0 18.921 11.1027 0 
128 0 19.4651 12.1157 0 
129 0 20.0171 11.1624 0 
130 0 20.5574 12.1227 0 
131 0 21.1121 11.1831 0 
132 0 21.6887 12.1872 0 
133 0 22.231 11.2123 0 
134 0 22.8219 12.2044 0 
135 0 23.3448 11.1996 0 
136 0 23.9227 12.2267 0 
137 0 24.4598 11.188 0 
138 0 25.0134 12.2044 0 
140 0 4.06357 13.1841 0 
142 0 5.1874 13.2034 0 
144 0 6.27131 13.1914 0 
146 0 7.38767 13.1574 0 
148 0 8.46888 13.1459 0 
150 0 9.60511 13.148 0 
152 0 10.7627 13.1389 0 
154 0 11.9419 13.1536 0 
156 0 13.1246 13.1465 0 
158 0 14.3009 13.1503 0 
160 0 15.4442 13.1084 0 
162 0 16.5882 13.0771 0 
164 0 17.7612 13.0784 0 
166 0 18.9076 13.1038 0 
168 0 20.0493 13.1249 0 
170 0 21.128 13.1231 0 
172 0 22.2485 13.1608 0 
174 0 23.3742 13.1789 0 
176 0 24.47 13.1588 0 
139 0 3.45115 14.1886 0 
179 0 4.06554 15.1416 0 
141 0 4.63096 14.1848 0 
143 0 5.70755 14.1833 0 
181 0 5.17883 15.1702 0 
145 0 6.8203 14.176 0 
183 0 6.26411 15.1427 0 
147 0 7.94293 14.1397 0 
185 0 7.36313 15.1449 0 
187 0 8.4658 15.1723 0 
149 0 9.04268 14.1799 0 
189 0 9.64761 15.1592 0 
151 0 10.2208 14.1527 0 
153 0 11.3688 14.1563 0 
191 0 10.8161 15.1652 0 
155 0 12.531 14.141 0 
193 0 11.9746 15.1881 0 
157 0 13.6948 14.1253 0 
195 0 13.1047 15.1665 0 
159 0 14.8689 14.1574 0 
197 0 14.3129 15.1814 0 
199 0 15.4542 15.1488 0 
161 0 16.0278 14.103 0 
201 0 16.6145 15.1013 0 
163 0 17.2136 14.0534 0 
165 0 18.3504 14.1208 0 
203 0 17.7905 15.1342 0 
167 0 19.5085 14.1171 0 
205 0 18.9471 15.1386 0 
169 0 20.6272 14.0927 0 
207 0 20.0569 15.1067 0 
209 0 21.1458 15.1063 0 
171 0 21.6777 14.1245 0 
211 0 22.246 15.1076 0 
173 0 22.8237 14.1473 0 
175 0 23.8938 14.1829 0 
213 0 23.3495 15.1701 0 
177 0 25.0493 14.177 0 
215 0 24.4544 15.1557 0 
178 0 3.51335 16.1125 0 
180 0 4.62241 16.1709 0 
182 0 5.73324 16.1206 0 
184 0 6.84683 16.1526 0 
186 0 7.92505 16.162 0 
188 0 9.03418 16.1722 0 
190 0 10.1935 16.1719 0 
192 0 11.3613 16.1895 0 
194 0 12.5066 16.1901 0 
196 0 13.6603 16.134 0 
198 0 14.8576 16.1771 0 
200 0 16.0203 16.1225 0 
202 0 17.1841 16.1139 0 
204 0 18.351 16.1239 0 
206 0 19.5137 16.1268 0 
208 0 20.604 16.0912 0 
210 0 21.6815 16.125 0 
212 0 22.7939 16.1629 0 
214 0 23.9227 16.1173 0 
216 0 25.0514 16.1017 0 
217 0 3.53248 18.1134 0 
218 0 4.07481 17.1134 0 
219 0 4.64212 18.0491 0 
220 0 5.21473 17.1048 0 
221 0 5.74469 18.0863 0 
222 0 6.31559 17.1041 0 
223 0 6.83325 18.1026 0 
224 0 7.40373 17.1452 0 
225 0 7.99897 18.1409 0 
226 0 8.4718 17.1558 0 
227 0 9.08513 18.1441 0 
228 0 9.58404 17.1463 0 
229 0 10.1995 18.179 0 
230 0 10.7617 17.1778 0 
231 0 11.3409 18.2096 0 
232 0 11.9101 17.2058 0 
233 0 12.5514 18.1668 0 
234 0 13.0781 17.1387 0 
235 0 13.7349 18.1265 0 
236 0 14.2797 17.1428 0 
237 0 14.8994 18.1583 0 
238 0 15.4667 17.1599 0 
239 0 16.0721 18.161 0 
240 0 16.6194 17.1057 0 
241 0 17.2016 18.0915 0 
242 0 17.7975 17.1032 0 
243 0 18.3552 18.1045 0 
244 0 18.9608 17.0981 0 
245 0 19.4967 18.1165 0 
246 0 20.051 17.105 0 
247 0 20.5646 18.0897 0 
248 0 21.1494 17.0914 0 
249 0 21.6471 18.0983 0 
250 0 22.2557 17.1146 0 
251 0 22.8235 18.0639 0 
252 0 23.3773 17.1038 0 
253 0 23.9453 18.1093 0 
254 0 24.4858 17.1116 0 
255 0 25.0267 18.1192 0 
256 0 4.08581 19.0542 0 
258 0 5.21309 19.053 0 
260 0 6.33749 19.0807 0 
262 0 7.44322 19.0951 0 
264 0 8.55636 19.1319 0 
266 0 9.65274 19.1654 0 
268 0 10.8056 19.2061 0 
270 0 11.9296 19.2055 0 
272 0 13.1168 19.1667 0 
274 0 14.269 19.175 0 
276 0 15.4462 19.172 0 
278 0 16.6393 19.1501 0 
280 0 17.7386 19.0585 0 
282 0 18.8742 19.0255 0 
284 0 20.0241 19.0758 0 
286 0 21.1455 19.0758 0 
288 0 22.2684 19.0363 0 
290 0 23.3691 19.0658 0 
292 0 24.5336 19.1069 0 
257 0 4.67159 20.0152 0 
259 0 5.76174 20.0038 0 
261 0 6.88466 20.0769 0 
263 0 7.99559 20.1137 0 
265 0 9.10805 20.0949 0 
267 0 10.257 20.1435 0 
269 0 11.3799 20.1506 0 
271 0 12.534 20.1597 0 
273 0 13.6957 20.1348 0 
275 0 14.8427 20.1572 0 
277 0 16.0582 20.1646 0 
279 0 17.2033 20.1044 0 
281 0 18.3471 20.0241 0 
283 0 19.4634 20.0268 0 
285 0 20.5514 20.0403 0 
287 0 21.7104 20.0333 0 
289 0 22.8269 20.021 0 
291 0 23.9572 20.0407 0 
293 0 5.21331 20.957 0 
294 0 5.75728 21.959 0 
295 0 6.34323 21.0519 0 
296 0 6.93518 22.0466 0 
297 0 7.47604 21.0747 0 
298 0 8.05205 22.0714 0 
299 0 8.58695 21.093 0 
300 0 9.20479 22.0922 0 
301 0 9.72575 21.0663 0 
302 0 10.3181 22.0111 0 
303 0 10.8274 21.0757 0 
304 0 11.4538 22.0383 0 
305 0 12.0063 21.0912 0 
306 0 12.6033 22.0303 0 
307 0 13.1556 21.097 0 
308 0 13.7477 22.0353 0 
309 0 14.2847 21.0787 0 
310 0 14.8465 22.0902 0 
311 0 15.4617 21.0947 0 
312 0 15.9607 22.046 0 
313 0 16.5899 21.0726 0 
314 0 17.1106 22.0713 0 
315 0 17.7212 21.0859 0 
316 0 18.212 22.0529 0 
317 0 18.8737 20.9819 0 
318 0 19.3179 21.9969 0 
319 0 19.9727 21.0143 0 
320 0 20.4424 22.0005 0 
321 0 21.08 21.0074 0 
322 0 21.5834 21.9963 0 
323 0 22.2177 21.0102 0 
324 0 22.7356 21.9508 0 
325 0 23.3498 20.9872 0 
326 0 7.48732 23.0363 0 
328 0 8.59302 23.028 0 
330 0 9.79196 23.0287 0 
332 0 10.9235 23.006 0 
334 0 12.009 23.014 0 
336 0 13.1096 23.0182 0 
338 0 14.2642 23.0335 0 
340 0 15.4041 23.035 0 
342 0 16.5458 23.0221 0 
344 0 17.6414 23.0334 0 
346 0 18.7692 23.0098 0 
348 0 19.8862 22.9839 0 
350 0 21.02 22.9871 0 
327 0 8.07308 24.0024 0 
329 0 9.21958 23.9808 0 
351 0 9.78274 24.9235 0 
331 0 10.3887 23.9793 0 
333 0 11.4795 23.9748 0 
352 0 10.8959 24.9468 0 
335 0 12.5825 23.9815 0 
353 0 12.0064 24.9401 0 
337 0 13.6965 23.9963 0 
354 0 13.1339 24.9113 0 
339 0 14.822 23.9865 0 
356 0 14.2636 24.9258 0 
358 0 15.3666 24.9555 0 
341 0 15.9565 24.006 0 
359 0 16.4848 24.9877 0 
343 0 17.0772 23.9772 0 
345 0 18.159 23.99 0 
360 0 17.5806 24.9352 0 
347 0 19.3023 23.9526 0 
361 0 18.7069 24.9586 0 
349 0 20.4276 23.9313 0 
355 0 13.6815 25.9351 0 
357 0 14.7894 25.9021 0 
ITEM: TIMESTEP
100
ITEM: NUMBER OF ATOMS
361
ITEM: BOX BOUNDS ff ff pp
0 58.2767
0 40.3753
-0.582767 0.582767
ITEM: ATOMS id v_p x y z 
11 0 10.2285 6.64025 0 
13 0 11.3772 6.62957 0 
1 0 11.8858 5.60487 0 
2 0 12.9908 5.63561 0 
15 0 12.4525 6.6019 0 
3 0 14.0914 5.63398 0 
17 0 13.5371 6.64964 0 
4 0 15.1887 5.68932 0 
19 0 14.6506 6.64589 0 
5 0 16.2809 5.63857 0 
21 0 15.728 6.64363 0 
23 0 16.8003 6.64111 0 
6 0 17.3767 5.68293 0 
25 0 17.9044 6.63613 0 
7 0 18.4598 5.63463 0 
8 0 19.575 5.5828 0 
27 0 18.9957 6.62748 0 
29 0 20.1217 6.59111 0 
31 0 21.1963 6.53474 0 
9 0 8.63331 7.63802 0 
10 0 9.73888 7.66386 0 
12 0 10.8465 7.60557 0 
14 0 11.955 7.61567 0 
16 0 13.0032 7.60251 0 
18 0 14.0939 7.62771 0 
20 0 15.1721 7.61517 0 
22 0 16.2486 7.61907 0 
24 0 17.3401 7.58588 0 
26 0 18.4449 7.58679 0 
28 0 19.5772 7.56628 0 
30 0 20.6925 7.53782 0 
32 0 21.8113 7.50055 0 
33 0 22.8959 7.57671 0 
34 0 7.50131 9.50757 0 
35 0 8.0667 8.55848 0 
36 0 8.62969 9.53386 0 
37 0 9.17871 8.61705 0 
38 0 9.70536 9.56785 0 
39 0 10.3086 8.58653 0 
40 0 10.8049 9.55232 0 
41 0 11.3786 8.5654 0 
42 0 11.9102 9.57181 0 
43 0 12.4591 8.58911 0 
44 0 13.0079 9.5474 0 
45 0 13.559 8.61324 0 
46 0 14.124 9.54873 0 
47 0 14.6595 8.57937 0 
48 0 15.2175 9.55306 0 
49 0 15.7121 8.57233 0 
50 0 16.313 9.53454 0 
51 0 16.8252 8.57027 0 
52 0 17.385 9.54074 0 
53 0 17.9268 8.54128 0 
54 0 18.442 9.52969 0 
55 0 19.0124 8.55508 0 
56 0 19.5447 9.50574 0 
57 0 20.108 8.52441 0 
58 0 20.6398 9.48664 0 
59 0 21.2736 8.49593 0 
60 0 21.7689 9.48618 0 
61 0 22.3469 8.51315 0 
62 0 22.8998 9.46604 0 
63 0 23.4748 8.47861 0 
64 0 24.0217 9.45276 0 
66 0 6.9783 10.4646 0 
68 0 8.07041 10.486 0 
70 0 9.15315 10.489 0 
72 0 10.2832 10.5003 0 
74 0 11.3858 10.5063 0 
76 0 12.4844 10.4996 0 
78 0 13.5521 10.4967 0 
80 0 14.6208 10.5213 0 
82 0 15.7168 10.5018 0 
84 0 16.8286 10.5158 0 
86 0 17.8959 10.5147 0 
88 0 18.9681 10.4937 0 
90 0 20.093 10.4333 0 
92 0 21.2181 10.4371 0 
94 0 22.3056 10.426 0 
96 0 23.4375 10.4137 0 
98 0 24.5313 10.4148 0 
65 0 6.4108 11.4174 0 
67 0 7.55636 11.4229 0 
69 0 8.64522 11.4415 0 
71 0 9.73384 11.4728 0 
73 0 10.8501 11.4625 0 
75 0 11.9722 11.4805 0 
77 0 13.0438 11.4578 0 
79 0 14.1298 11.4809 0 
81 0 15.1967 11.464 0 
83 0 16.2697 11.4592 0 
85 0 17.3453 11.4607 0 
87 0 18.4548 11.4337 0 
89 0 19.5117 11.3966 0 
91 0 20.6184 11.3739 0 
93 0 21.7239 11.3864 0 
95 0 22.8218 11.3851 0 
97 0 23.9613 11.3875 0 
99 0 25.0538 11.3602 0 
100 0 5.31296 13.2837 0 
101 0 5.86371 12.3473 0 
102 0 6.43733 13.3046 0 
103 0 6.96674 12.3431 0 
104 0 7.52309 13.3018 0 
105 0 8.08874 12.3608 0 
106 0 8.62583 13.3454 0 
107 0 9.15902 12.3817 0 
108 0 9.75165 13.3281 0 
109 0 10.2838 12.4018 0 
110 0 10.8348 13.3364 0 
111 0 11.4205 12.3884 0 
112 0 11.9671 13.3283 0 
113 0 12.531 12.4057 0 
114 0 13.05 13.3504 0 
115 0 13.6195 12.4389 0 
116 0 14.1482 13.3127 0 
117 0 14.7001 12.4121 0 
118 0 15.1729 13.3247 0 
119 0 15.7198 12.379 0 
120 0 16.2691 13.2979 0 
121 0 16.7883 12.3955 0 
122 0 17.3379 13.3297 0 
123 0 17.8932 12.3917 0 
124 0 18.4025 13.313 0 
125 0 18.9518 12.395 0 
126 0 19.5073 13.3073 0 
127 0 20.0613 12.3469 0 
128 0 20.6281 13.2766 0 
129 0 21.1663 12.3288 0 
130 0 21.7285 13.3013 0 
131 0 22.2657 12.3404 0 
132 0 22.8406 13.2744 0 
133 0 23.3734 12.3346 0 
134 0 23.9483 13.2759 0 
135 0 24.5083 12.3633 0 
136 0 25.0699 13.2728 0 
137 0 25.6196 12.2945 0 
138 0 26.216 13.2855 0 
140 0 5.90915 14.2398 0 
142 0 7.00839 14.2615 0 
144 0 8.10966 14.3184 0 
146 0 9.22676 14.2875 0 
148 0 10.3117 14.2843 0 
150 0 11.3999 14.2638 0 
152 0 12.5018 14.2769 0 
154 0 13.5555 14.2341 0 
156 0 14.6517 14.2157 0 
158 0 15.7339 14.2182 0 
160 0 16.8047 14.2114 0 
162 0 17.8617 14.2551 0 
164 0 18.9051 14.268 0 
166 0 20.0255 14.2562 0 
168 0 21.1292 14.2251 0 
170 0 22.2704 14.2251 0 
172 0 23.4026 14.2171 0 
174 0 24.493 14.2258 0 
176 0 25.6009 14.2186 0 
139 0 5.29054 15.1876 0 
179 0 5.86923 16.1829 0 
141 0 6.40866 15.1698 0 
143 0 7.5279 15.2327 0 
181 0 6.99968 16.1685 0 
145 0 8.65824 15.2171 0 
183 0 8.12428 16.1888 0 
147 0 9.7872 15.2403 0 
185 0 9.24258 16.1673 0 
187 0 10.3826 16.1522 0 
149 0 10.8854 15.1943 0 
189 0 11.4585 16.1038 0 
151 0 11.9959 15.1957 0 
153 0 13.0626 15.1835 0 
191 0 12.5786 16.1348 0 
155 0 14.1099 15.1807 0 
193 0 13.5867 16.1112 0 
157 0 15.2046 15.1447 0 
195 0 14.6181 16.1295 0 
159 0 16.3135 15.1491 0 
197 0 15.7492 16.1291 0 
199 0 16.8475 16.0925 0 
161 0 17.401 15.1658 0 
201 0 17.9134 16.0917 0 
163 0 18.4036 15.2161 0 
165 0 19.4972 15.2267 0 
203 0 18.9689 16.1201 0 
167 0 20.5699 15.1771 0 
205 0 20.0722 16.146 0 
169 0 21.6825 15.164 0 
207 0 21.1515 16.1051 0 
209 0 22.2864 16.0974 0 
171 0 22.8233 15.1544 0 
211 0 23.3934 16.1489 0 
173 0 23.9098 15.171 0 
175 0 25.0539 15.1578 0 
213 0 24.496 16.145 0 
177 0 26.2575 15.1269 0 
215 0 25.6656 16.0816 0 
178 0 5.3337 17.0946 0 
180 0 6.44308 17.1074 0 
182 0 7.53684 17.1039 0 
184 0 8.66556 17.1141 0 
186 0 9.79906 17.1094 0 
188 0 10.873 17.0691 0 
190 0 11.9774 17.0508 0 
192 0 13.0896 17.0407 0 
194 0 14.1262 17.0672 0 
196 0 15.1655 17.0513 0 
198 0 16.2976 17.0659 0 
200 0 17.3541 17.0527 0 
202 0 18.372 17.0249 0 
204 0 19.5208 17.0711 0 
206 0 20.6018 17.0811 0 
208 0 21.7023 17.0543 0 
210 0 22.7968 17.0663 0 
212 0 23.9497 17.0782 0 
214 0 25.1009 17.0614 0 
216 0 26.2184 17.048 0 
217 0 5.30341 19.0574 0 
218 0 5.86836 18.079 0 
219 0 6.422 19.03 0 
220 0 6.95742 18.0609 0 
221 0 7.54087 18.9691 0 
222 0 8.07082 18.0365 0 
223 0 8.65137 18.9902 0 
224 0 9.19141 18.0604 0 
225 0 9.7321 18.978 0 
226 0 10.2946 18.0258 0 
227 0 10.8676 18.9262 0 
228 0 11.4265 17.9805 0 
229 0 11.9711 18.9363 0 
230 0 12.5195 18.0038 0 
231 0 13.0706 18.9255 0 
232 0 13.6083 17.9542 0 
233 0 14.1274 18.8636 0 
234 0 14.6674 17.957 0 
235 0 15.187 18.8503 0 
236 0 15.7429 17.9383 0 
237 0 16.2678 18.8589 0 
238 0 16.8185 17.9552 0 
239 0 17.3157 18.9232 0 
240 0 17.8868 17.9556 0 
241 0 18.3955 18.9076 0 
242 0 18.9212 17.9861 0 
243 0 19.4801 18.9097 0 
244 0 20.0471 18.0203 0 
245 0 20.5686 18.9503 0 
246 0 21.1275 18.0116 0 
247 0 21.6719 18.9678 0 
248 0 22.2097 18.0241 0 
249 0 22.7801 18.9647 0 
250 0 23.3449 18.013 0 
251 0 23.8841 18.9786 0 
252 0 24.4992 18.0386 0 
253 0 25.0253 18.9693 0 
254 0 25.6038 17.9866 0 
255 0 26.1036 19.0087 0 
256 0 5.84734 20.003 0 
258 0 6.95747 19.9844 0 
260 0 8.049 19.9648 0 
262 0 9.16071 19.9268 0 
264 0 10.2768 19.9032 0 
266 0 11.4028 19.8644 0 
268 0 12.4901 19.8704 0 
270 0 13.5922 19.8656 0 
272 0 14.6315 19.8081 0 
274 0 15.7156 19.7796 0 
276 0 16.7946 19.8242 0 
278 0 17.8687 19.8813 0 
280 0 18.94 19.8721 0 
282 0 20.0206 19.8734 0 
284 0 21.1156 19.9054 0 
286 0 22.2418 19.9068 0 
288 0 23.3547 19.8973 0 
290 0 24.4797 19.9299 0 
292 0 25.5714 19.9585 0 
257 0 6.41649 20.9637 0 
259 0 7.50285 20.9225 0 
261 0 8.62597 20.8571 0 
263 0 9.71893 20.8514 0 
265 0 10.8151 20.849 0 
267 0 11.8838 20.8267 0 
269 0 13.0099 20.853 0 
271 0 14.0945 20.8038 0 
273 0 15.1661 20.7651 0 
275 0 16.2543 20.7551 0 
277 0 17.3369 20.7993 0 
279 0 18.4344 20.8094 0 
281 0 19.5462 20.8334 0 
283 0 20.6084 20.8435 0 
285 0 21.703 20.8478 0 
287 0 22.8259 20.8501 0 
289 0 23.9282 20.8479 0 
291 0 25.0219 20.9036 0 
293 0 6.98146 21.8926 0 
294 0 7.55773 22.8633 0 
295 0 8.06296 21.837 0 
296 0 8.67191 22.7813 0 
297 0 9.18452 21.7998 0 
298 0 9.71733 22.7865 0 
299 0 10.2756 21.802 0 
300 0 10.8411 22.7778 0 
301 0 11.3356 21.8232 0 
302 0 11.9422 22.7565 0 
303 0 12.4632 21.7894 0 
304 0 13.0073 22.7279 0 
305 0 13.5405 21.7498 0 
306 0 14.0884 22.7453 0 
307 0 14.5981 21.751 0 
308 0 15.1829 22.7317 0 
309 0 15.6984 21.7454 0 
310 0 16.255 22.7028 0 
311 0 16.7918 21.7444 0 
312 0 17.3589 22.7053 0 
313 0 17.9249 21.7691 0 
314 0 18.4419 22.7165 0 
315 0 19.0038 21.7615 0 
316 0 19.548 22.7382 0 
317 0 20.0708 21.7579 0 
318 0 20.6109 22.7148 0 
319 0 21.1754 21.7851 0 
320 0 21.7329 22.7506 0 
321 0 22.2758 21.8013 0 
322 0 22.8329 22.7351 0 
323 0 23.3821 21.7937 0 
324 0 23.9413 22.7943 0 
325 0 24.4902 21.8432 0 
326 0 9.09694 23.7763 0 
328 0 10.1899 23.7752 0 
330 0 11.3481 23.7221 0 
332 0 12.4518 23.7045 0 
334 0 13.5469 23.7061 0 
336 0 14.6576 23.7567 0 
338 0 15.7312 23.6926 0 
340 0 16.8394 23.668 0 
342 0 17.9229 23.6515 0 
344 0 19.0402 23.6762 0 
346 0 20.1431 23.7044 0 
348 0 21.243 23.7038 0 
350 0 22.3477 23.7401 0 
327 0 9.65289 24.7345 0 
329 0 10.7413 24.706 0 
351 0 11.2935 25.656 0 
331 0 11.8373 24.707 0 
333 0 12.9706 24.6687 0 
352 0 12.4223 25.6536 0 
335 0 14.0675 24.6771 0 
353 0 13.5331 25.6238 0 
337 0 15.176 24.6523 0 
354 0 14.6535 25.6567 0 
339 0 16.2878 24.6215 0 
356 0 15.7615 25.5861 0 
358 0 16.8547 25.5747 0 
341 0 17.4012 24.5986 0 
359 0 17.9199 25.5755 0 
343 0 18.5046 24.6318 0 
345 0 19.6058 24.6443 0 
360 0 19.0355 25.5786 0 
347 0 20.7233 24.7081 0 
361 0 20.1329 25.6128 0 
349 0 21.8024 24.6943 0 
355 0 15.2205 26.6004 0 
357 0 16.3265 26.5433 0 
ITEM: TIMESTEP
150
ITEM: NUMBER OF ATOMS
361
ITEM: BOX BOUNDS ff ff pp
0 58.2767
0 40.3753
-0.582767 0.582767
ITEM: ATOMS id v_p x y z 
11 0 11.6374 7.59758 0 
13 0 12.7392 7.63509 0 
1 0 13.3319 6.62104 0 
2 0 14.411 6.57384 0 
15 0 13.8642 7.64098 0 
3 0 15.5 6.5443 0 
17 0 14.9789 7.62154 0 
4 0 16.6131 6.58361 0 
19 0 16.0856 7.64499 0 
5 0 17.7366 6.58198 0 
21 0 17.1828 7.63695 0 
23 0 18.2625 7.61295 0 
6 0 18.8438 6.60519 0 
25 0 19.3827 7.61489 0 
7 0 19.9581 6.60584 0 
8 0 21.0604 6.61763 0 
27 0 20.4933 7.61248 0 
29 0 21.6004 7.57956 0 
31 0 22.686 7.57853 0 
9 0 9.97058 8.54349 0 
10 0 11.1322 8.53943 0 
12 0 12.2261 8.59258 0 
14 0 13.3285 8.59238 0 
16 0 14.4537 8.62744 0 
18 0 15.5505 8.62543 0 
20 0 16.6608 8.63141 0 
22 0 17.7494 8.60191 0 
24 0 18.8495 8.61727 0 
26 0 19.9297 8.61973 0 
28 0 21.0072 8.57747 0 
30 0 22.0853 8.56824 0 
32 0 23.2623 8.55118 0 
33 0 24.3465 8.53878 0 
34 0 8.83517 10.4305 0 
35 0 9.38625 9.49311 0 
36 0 9.99784 10.4595 0 
37 0 10.5614 9.50924 0 
38 0 11.1555 10.5326 0 
39 0 11.6624 9.54643 0 
40 0 12.2497 10.4977 0 
41 0 12.7754 9.54569 0 
42 0 13.3248 10.4961 0 
43 0 13.8768 9.54711 0 
44 0 14.443 10.5149 0 
45 0 14.9833 9.56211 0 
46 0 15.5527 10.5154 0 
47 0 16.0969 9.56815 0 
48 0 16.6662 10.4764 0 
49 0 17.1879 9.52413 0 
50 0 17.748 10.4967 0 
51 0 18.2696 9.56157 0 
52 0 18.8175 10.4991 0 
53 0 19.3759 9.56471 0 
54 0 19.9269 10.5005 0 
55 0 20.4672 9.55217 0 
56 0 21.0361 10.4938 0 
57 0 21.5466 9.55095 0 
58 0 22.1052 10.5175 0 
59 0 22.6691 9.54765 0 
60 0 23.2205 10.5123 0 
61 0 23.7902 9.51392 0 
62 0 24.3449 10.4817 0 
63 0 24.8876 9.47771 0 
64 0 25.5002 10.3808 0 
66 0 8.32994 11.4125 0 
68 0 9.48371 11.4215 0 
70 0 10.6261 11.4673 0 
72 0 11.7204 11.4354 0 
74 0 12.8205 11.4553 0 
76 0 13.922 11.4451 0 
78 0 15.0121 11.4562 0 
80 0 16.1157 11.4664 0 
82 0 17.2142 11.4457 0 
84 0 18.2965 11.4738 0 
86 0 19.3766 11.4521 0 
88 0 20.4621 11.4623 0 
90 0 21.587 11.4456 0 
92 0 22.6673 11.4406 0 
94 0 23.7831 11.4429 0 
96 0 24.8899 11.3924 0 
98 0 26.0421 11.3451 0 
65 0 7.73721 12.3858 0 
67 0 8.90835 12.3849 0 
69 0 10.0723 12.3982 0 
71 0 11.2077 12.3886 0 
73 0 12.2904 12.4007 0 
75 0 13.3954 12.392 0 
77 0 14.4795 12.4049 0 
79 0 15.6041 12.4012 0 
81 0 16.6729 12.4003 0 
83 0 17.7639 12.4331 0 
85 0 18.828 12.4192 0 
87 0 19.9332 12.4091 0 
89 0 21.0296 12.3872 0 
91 0 22.1342 12.3746 0 
93 0 23.2558 12.3852 0 
95 0 24.3566 12.379 0 
97 0 25.4527 12.3566 0 
99 0 26.6603 12.2496 0 
100 0 6.68386 14.3414 0 
101 0 7.25038 13.3721 0 
102 0 7.79219 14.3251 0 
103 0 8.40203 13.3528 0 
104 0 8.99199 14.303 0 
105 0 9.5249 13.3478 0 
106 0 10.0623 14.2817 0 
107 0 10.6491 13.3311 0 
108 0 11.17 14.2819 0 
109 0 11.7286 13.3315 0 
110 0 12.2877 14.2916 0 
111 0 12.8465 13.3303 0 
112 0 13.3948 14.2754 0 
113 0 13.9514 13.3577 0 
114 0 14.4953 14.3163 0 
115 0 15.0106 13.3451 0 
116 0 15.5699 14.2772 0 
117 0 16.1187 13.3558 0 
118 0 16.6262 14.303 0 
119 0 17.1675 13.3456 0 
120 0 17.75 14.2949 0 
121 0 18.2746 13.3453 0 
122 0 18.848 14.3243 0 
123 0 19.3604 13.3812 0 